[Molden Format]
made by pyscf v[1.7.6]
[Atoms] (AU)
C   1   6     0.00000000000000     0.00000000000000    -1.22727253666975
O   2   8     0.00000000000000     0.00000000000000     0.92302663061477
[GTO]
1 0
 s    6 1.00
               4563.24  0.0019666502494478
               682.024   0.015230601931833
               154.973   0.076126909655853
               44.4553    0.26080103307972
                13.029    0.61646207819137
               1.82773    0.22100602803216
 s    3 1.00
               20.9642    0.11466008072933
               4.80331    0.91999964774905
               1.45933  -0.0030306821338285
 s    1 1.00
              0.483456                   1
 s    1 1.00
              0.145585                   1
 s    1 1.00
                0.0438                   1
 p    3 1.00
               20.9642   0.040248692672679
               4.80331    0.23759395674575
               1.45933    0.81585385147287
 p    1 1.00
              0.483456                   1
 p    1 1.00
              0.145585                   1
 p    1 1.00
                0.0438                   1
 d    1 1.00
                 2.504                   1
 d    1 1.00
                 0.626                   1
 d    1 1.00
                0.1565                   1
 f    1 1.00
                   0.8                   1

2 0
 s    6 1.00
                8588.5  0.0018951500831509
               1297.23    0.01438590063119
               299.296    0.07073200310341
               87.3771    0.24000101053019
               25.6789    0.59479702609709
               3.74004    0.28080201232036
 s    3 1.00
               42.1175    0.11388901243955
               9.62837    0.92081110057574
               2.85332  -0.0032744703576546
 s    1 1.00
              0.905661                   1
 s    1 1.00
              0.255611                   1
 s    1 1.00
                0.0845                   1
 p    3 1.00
               42.1175   0.036511397380305
               9.62837    0.23715298298426
               2.85332    0.81970194118634
 p    1 1.00
              0.905661                   1
 p    1 1.00
              0.255611                   1
 p    1 1.00
                0.0845                   1
 d    1 1.00
                  5.16                   1
 d    1 1.00
                 1.292                   1
 d    1 1.00
                0.3225                   1
 f    1 1.00
                   1.4                   1

[5d]
[7f]
[9g]

[MO]
 Sym= A
 Ene=    -20.66805992
 Spin= Alpha
 Occup=    2.00000
   1    0.0012194841271136
   2    0.0020366133042811
   3    -0.0041863375363816
   4     0.012338552888455
   5    0.00043828013926499
   6    -2.4020539105154e-15
   7    -6.1935477679713e-16
   8    -0.004738109998234
   9    -3.8284701729931e-15
  10    -8.127997416352e-16
  11    -0.0044680769657833
  12    -1.6415563491502e-15
  13    -3.5849642716605e-16
  14     0.005494129357185
  15    -1.7300022300732e-16
  16    -5.8246906088016e-17
  17    -0.0004785108806241
  18    -0.0003660042342575
  19    -1.511731360385e-16
  20    -3.3242822077601e-17
  21    -2.3412272771735e-19
  22    3.6811387093526e-19
  23    -0.0014444008189024
  24    -9.3013513845803e-16
  25    -1.9950085787213e-16
  26    -1.3805246468507e-18
  27    1.3218234362288e-18
  28    0.0018588313958894
  29    -1.4571999525415e-17
  30    -6.4474133427519e-18
  31    -1.3157454064242e-18
  32    1.0682932035956e-18
  33    -0.00028313313059997
  34    -2.5257187709513e-16
  35    -5.2533632680103e-17
  36    -7.919731153825e-19
  37    5.4158805001168e-20
  38    -5.646464112763e-20
  39    4.5849482269272e-20
  40      0.55927684932897
  41      0.48606091835033
  42    -0.039117502071733
  43     -0.04450935296895
  44    -0.0037393315848115
  45    -4.816099997508e-15
  46    -1.0147516521172e-15
  47    -0.0040987414892368
  48    -7.4397833792084e-15
  49    -1.6117212141582e-15
  50    -0.0037529021536199
  51    -6.5298922209914e-15
  52    -1.3986524011569e-15
  53    -0.0015508618231087
  54    -4.1512956277326e-16
  55    -9.2410196867038e-17
  56    0.00078077521324673
  57    4.5805984112766e-05
  58    4.8177445127686e-17
  59    9.2985968139836e-18
  60    -1.3316718949915e-18
  61    1.010588272501e-19
  62    -0.00053327133643917
  63    3.931660446701e-16
  64    8.5487998889943e-17
  65    -1.6888811826639e-18
  66    3.2779931011191e-18
  67    -0.00054944498963808
  68    6.0936142266893e-16
  69    1.2841465236598e-16
  70    3.1635960121751e-18
  71    -1.5723803054571e-19
  72    0.00025272482758691
  73    -9.4353878571539e-17
  74    -2.0674596374709e-17
  75     -1.5008113973e-19
  76    2.2465384672678e-19
  77    -2.5727199795078e-19
  78    -3.5944390105014e-19
 Sym= A
 Ene=    -11.36530823
 Spin= Alpha
 Occup=    2.00000
   1      0.57062449792241
   2       0.4797588227171
   3    -0.036063712785704
   4    -0.033995641985132
   5    -0.0025420153655499
   6    -1.3828142301499e-16
   7    -6.2740464475661e-18
   8    0.0048809766331945
   9    -2.1056659586338e-16
  10    -7.3349839158962e-17
  11    0.0039555029096427
  12    -6.8134355182081e-17
  13    -4.2110737884769e-17
  14    0.0059764755354882
  15    -6.7603630833725e-17
  16    -2.4399108478851e-17
  17    -0.0003715625892474
  18    -2.9686572457049e-05
  19    -7.7823782697217e-18
  20    -5.1138640489157e-18
  21    -6.8189231263387e-19
  22    3.1343862931253e-18
  23    -0.00026185558597166
  24    -5.0792496582856e-17
  25    -2.675301163656e-17
  26    3.1462692878268e-18
  27    -1.0571985192715e-18
  28    -0.00035620535904193
  29    -2.551331131506e-18
  30    -2.3615967254102e-18
  31    -1.459986797643e-18
  32    1.2942876432378e-18
  33    -1.9248272139824e-05
  34    -1.4030763577625e-17
  35    -9.5404801013691e-18
  36    -2.589523409833e-19
  37    6.2548962355925e-19
  38    -5.4789393743826e-20
  39    -1.830988732269e-19
  40    0.0013165375138574
  41    0.0024338571248559
  42    -0.0069779935035446
  43    0.0022478782802275
  44    0.0047305070042788
  45    -2.4917633798024e-16
  46    -1.5414881538502e-16
  47    0.0063585698567659
  48    -3.8302429422838e-16
  49    -2.3846353524645e-16
  50    0.0094896526705512
  51    -3.3007864333327e-16
  52    -2.1337982274691e-16
  53    0.0036920564515916
  54    -1.637370711749e-17
  55    -1.6594466289934e-17
  56    -0.0014619661785221
  57    -3.7203775263478e-05
  58    2.6424054482936e-18
  59    1.6574939864978e-18
  60    6.1096503325212e-20
  61    -2.58617861229e-20
  62    -0.00077284066353667
  63    2.0787621333819e-17
  64    1.0895558519225e-17
  65    -5.3080179592432e-19
  66    4.7036155260003e-19
  67    -0.00024455181010605
  68    2.7573774120355e-17
  69    1.6559435918496e-17
  70    1.6076368448471e-19
  71    8.6077948783447e-19
  72    0.00020443286030136
  73    -4.7993736217504e-18
  74    -2.1096202201946e-18
  75    1.0297292305244e-19
  76    -4.4670578903624e-19
  77    1.1278418554316e-19
  78    -1.9238013901626e-20
 Sym= A
 Ene=    -1.516100434
 Spin= Alpha
 Occup=    2.00000
   1     0.040767217874823
   2     0.082100829296325
   3     -0.26087311024339
   4     0.037191654040228
   5    0.0085461978542598
   6    -6.9832654433393e-14
   7    -1.4491424137794e-14
   8      -0.1601423613428
   9    -1.0916419809055e-13
  10    -2.2874965068643e-14
  11     -0.21624414958737
  12    -4.7996599647844e-14
  13    -1.0335849646318e-14
  14    -0.014042671586352
  15    -3.4528758388776e-15
  16    -1.8727338637452e-16
  17    -0.0044897627856955
  18    -0.010318776685191
  19    -4.3267702687352e-15
  20    -9.2697076494176e-16
  21    -5.9374081193666e-18
  22    -1.2912788161882e-17
  23    -0.044497065411672
  24    -2.6754150523365e-14
  25    -5.6718024045954e-15
  26    -2.3262686604764e-17
  27    2.0689851623009e-17
  28    0.0070589521802449
  29    -4.7530581358451e-16
  30    -6.9730258193184e-17
  31    -2.2734557073583e-17
  32    1.4260070770103e-17
  33    -0.006477841474389
  34    -7.2666168265992e-15
  35    -1.5129682379352e-15
  36    -9.028819816039e-18
  37    -1.1348368087215e-18
  38    -1.8467623526605e-18
  39    1.2908725166318e-18
  40     0.046176509392167
  41     0.096854601456234
  42     -0.31886344750388
  43     -0.16603570441792
  44     0.025196003648161
  45    -1.3838656796405e-13
  46    -2.9125387893237e-14
  47      0.19044031646749
  48    -2.1365488655965e-13
  49    -4.5002240954262e-14
  50      0.28006917905225
  51    -1.8735796817257e-13
  52    -3.9520837966881e-14
  53      0.16168745899403
  54    -1.1952611227592e-14
  55    -2.5364648486444e-15
  56    0.0036070532040223
  57    -0.0030308372537201
  58    1.3712277048406e-15
  59    2.9596365406019e-16
  60    2.453080937581e-18
  61    -9.7447599750613e-19
  62    -0.027937847930499
  63    1.1331157579895e-14
  64    2.4109529091837e-15
  65    -1.6569468377168e-17
  66    9.8432999277334e-18
  67    -0.0037626498097872
  68    1.7372431639182e-14
  69    3.7389756976847e-15
  70    1.2670550247925e-17
  71    -3.0316712956492e-18
  72    0.0086220360431083
  73    -2.6940566824182e-15
  74    -5.7850564036067e-16
  75    3.9584496525066e-18
  76    -6.7893705721041e-18
  77    4.900805557806e-18
  78    -2.9373085936438e-18
 Sym= A
 Ene=   -0.8043709539
 Spin= Alpha
 Occup=    2.00000
   1    -0.013715195966058
   2    -0.026392087734701
   3        0.103345734655
   4       0.1223033709337
   5    -0.0026031451524946
   6    8.7193906559257e-14
   7    2.0449562598105e-14
   8     0.046965891126715
   9    1.3606563646664e-13
  10    3.2428736783459e-14
  11     0.087889684385959
  12    5.9992427327061e-14
  13    1.4250658186239e-14
  14     0.087274399048167
  15    4.1686986403705e-15
  16    2.0099586452324e-16
  17    -0.0037611409489864
  18    0.0010939327425122
  19    5.3962963245547e-15
  20    1.2725632189597e-15
  21    -7.6373969364108e-19
  22    1.6458436538381e-17
  23    0.0084005885975951
  24    3.3412055474704e-14
  25    7.8465612684457e-15
  26    -6.656998408648e-18
  27    9.8010575891473e-18
  28     0.019699645084738
  29    6.4153057130623e-16
  30    1.0255793514631e-16
  31    -6.3432322935306e-18
  32    7.0295854744423e-18
  33    0.00043662839955207
  34    9.0756136033918e-15
  35    2.120086956482e-15
  36    -1.0281659477262e-17
  37    3.9587843325813e-18
  38    -3.9683331447663e-19
  39    3.1550824788844e-19
  40     0.064524592533143
  41      0.13650901077425
  42     -0.48247878046436
  43     -0.55492273892113
  44    -0.069181744182585
  45    1.7265036840725e-13
  46    4.0499598706596e-14
  47     -0.18676346705848
  48    2.6655987072449e-13
  49    6.2510672848643e-14
  50     -0.27737225607321
  51    2.3369650447854e-13
  52    5.4875024962686e-14
  53     -0.15757760741614
  54    1.4946535897931e-14
  55    3.4924492230066e-15
  56    0.0049646336250479
  57    0.0016163721084277
  58    -1.7053248045205e-15
  59    -4.1111901179439e-16
  60    3.5480784630494e-18
  61    -1.8732471852497e-18
  62     0.009535166310311
  63    -1.4129267866371e-14
  64    -3.3639643887323e-15
  65    8.2425500510081e-19
  66    1.1939695500654e-17
  67    -0.002597813635093
  68    -2.1578152936116e-14
  69    -5.1573517753207e-15
  70    5.114951771188e-17
  71    -1.4383347506458e-19
  72    -0.0018103970484266
  73    3.3541043696441e-15
  74    8.0003674707425e-16
  75    -1.5081638653214e-18
  76    8.2689838972473e-18
  77    5.0388165978163e-18
  78    -2.5768260666828e-18
 Sym= A
 Ene=    -0.636709137
 Spin= Alpha
 Occup=    2.00000
   1    2.6406995747623e-14
   2    5.1110423461833e-14
   3    -1.7655558374648e-13
   4    -2.4438499183156e-14
   5    1.0471395561415e-14
   6      0.12672331565751
   7    -3.8135854580001e-17
   8    -1.3461996659649e-13
   9      0.19739081372136
  10    -4.3710955157089e-16
  11    -2.0849870918087e-13
  12     0.085843407634659
  13    -8.7135819225727e-16
  14    -9.7620875549866e-14
  15    0.0075460080857331
  16    3.5927625963359e-16
  17    7.5714612676541e-16
  18    -6.7244042977582e-15
  19    0.0078028923143323
  20    -4.8344436868446e-17
  21    2.6036625010917e-17
  22    4.4053881136807e-17
  23    -2.718142717548e-14
  24     0.048288684694492
  25    1.3631916484189e-16
  26    5.7715297722074e-16
  27    -9.4923364457444e-18
  28    -1.6489875396758e-14
  29    0.0009375502233389
  30    -3.5767161903629e-16
  31    3.4148012363715e-16
  32    -1.9785029945691e-16
  33    -5.8311398683553e-15
  34     0.013112679974728
  35    -2.3688739675605e-16
  36    2.3060074588526e-16
  37    -3.4768241496585e-16
  38    1.3342808900299e-16
  39    6.0627894395089e-17
  40    -7.1565762733195e-15
  41    -2.8451928797698e-14
  42    1.4375621213933e-13
  43    3.1030862620144e-13
  44    5.8979170568224e-14
  45      0.24943152725273
  46    -2.3499694919383e-16
  47    2.3843970928685e-13
  48      0.38513359105563
  49    2.9902519698987e-18
  50    3.5279062149086e-13
  51      0.33768485689151
  52    4.0859069815656e-16
  53    1.9296580122751e-13
  54     0.021541241000417
  55    -3.142273345939e-16
  56    6.4896030431771e-15
  57    -2.8895894528638e-15
  58    -0.0024682032272138
  59    -1.6400692776593e-16
  60    -4.405423835814e-18
  61    5.1660457313128e-18
  62    -2.2174207894619e-14
  63    -0.020414834881455
  64    -1.6154570123109e-16
  65    -2.3051953226317e-16
  66    3.2059871118296e-16
  67    3.6798039503097e-15
  68    -0.031188460333647
  69    2.0840214980103e-16
  70    5.8733057069599e-17
  71    1.3613944566303e-16
  72    6.1970640621494e-15
  73    0.0048627251212532
  74    -2.4788897939393e-16
  75    5.9798130010565e-17
  76    -2.9813697531104e-16
  77    -9.7186783562922e-17
  78    1.9301519560107e-16
 Sym= A
 Ene=    -0.636709137
 Spin= Alpha
 Occup=    2.00000
   1    5.6329660524527e-15
   2    1.1127005962187e-14
   3    -4.1330444937429e-14
   4    -2.602953626328e-14
   5    4.7140174389257e-15
   6    1.2902444112932e-16
   7      0.12672331565751
   8    -2.7434438948827e-14
   9    2.0226863893091e-16
  10      0.19739081372135
  11    -4.9686510452764e-14
  12    -1.0776117772241e-15
  13     0.085843407634658
  14    -4.1542950823924e-14
  15    -2.3857909632685e-15
  16    0.0075460080857307
  17    3.1845158882225e-15
  18    -1.27006084968e-15
  19    -1.7612997220471e-16
  20    0.0078028923143329
  21    1.3339323821753e-18
  22    5.0095748897637e-17
  23    -1.3361410096876e-15
  24    4.6793433966793e-16
  25      0.04828868469449
  26    -2.2879944010454e-16
  27    2.9844035321079e-16
  28    -1.2737720557896e-14
  29    -8.1248088077569e-16
  30    0.00093755022333546
  31    -7.3159254600797e-16
  32    -1.7235438620593e-16
  33    -3.4777130235148e-15
  34    3.965791110472e-16
  35     0.013112679974728
  36    -1.605335497028e-16
  37    -2.8049957840793e-16
  38    -3.8703296679073e-17
  39    -3.3763388171088e-16
  40    -2.2293313034285e-15
  41    -7.6973941463678e-15
  42    3.2257626195985e-14
  43    1.0667536043374e-13
  44     1.29807421556e-14
  45    4.8481151298638e-16
  46      0.24943152725273
  47    5.4294578343822e-14
  48    1.4324847932633e-16
  49      0.38513359105563
  50    7.950451340565e-14
  51    9.0478140368285e-16
  52      0.33768485689151
  53    3.2892513747672e-14
  54    5.7719502898615e-16
  55     0.021541241000415
  56    6.7343809601298e-15
  57    -6.6227477097143e-16
  58    -1.9723784776829e-16
  59    -0.0024682032272138
  60    -3.5770601721222e-17
  61    -1.7509107168807e-17
  62    -4.4304228969529e-15
  63    3.3557508643822e-16
  64    -0.020414834881455
  65    4.1344205506937e-17
  66    -8.5363929329094e-17
  67    3.8972510819098e-15
  68    -1.1588369864942e-16
  69    -0.031188460333649
  70    -8.4565605967038e-17
  71    4.0308632917889e-17
  72    1.0306744611294e-15
  73    -7.1895910658623e-17
  74    0.0048627251212534
  75    -1.1374197728829e-18
  76    -1.0284365135708e-16
  77    7.3174003545792e-17
  78    -1.9779821216696e-17
 Sym= A
 Ene=   -0.5564193127
 Spin= Alpha
 Occup=    2.00000
   1     0.065531974115162
   2      0.14006888553065
   3     -0.46460364693587
   4     -0.59849638842943
   5    -0.049474072413203
   6    1.1317190933942e-14
   7    3.2474096651102e-15
   8      0.16388218349619
   9    1.8485896310689e-14
  10    5.111595069192e-15
  11      0.24578935942749
  12     8.81387343267e-15
  13    2.1587344995872e-15
  14      0.11864739518261
  15    -9.2070736020495e-16
  16    -7.3599987440175e-16
  17    -0.0005097883259564
  18    0.0032923498822113
  19    7.5303021857494e-16
  20    1.7334572579196e-16
  21    -2.952610896102e-18
  22    3.4789081616389e-17
  23      0.01527568797741
  24    4.5940986796089e-15
  25    1.0414541931142e-15
  26    1.8225106740378e-17
  27    4.4701784319685e-18
  28    -0.0081260612920929
  29    4.4895668189981e-17
  30    -1.7400633888584e-17
  31    -6.1331049748193e-18
  32    1.117458028152e-17
  33    -0.00075624939288828
  34     1.24661362572e-15
  35    2.4756930606884e-16
  36    -2.1758282139599e-17
  37    1.6439881276739e-17
  38    3.5243803738693e-19
  39    -2.3985222096838e-19
  40    -0.011474062134891
  41    -0.021115942882269
  42     0.071016146910125
  43      0.11167473961206
  44     0.051807945661972
  45    2.386300303705e-14
  46    5.2033108537309e-15
  47     -0.03432937086328
  48    3.685718402921e-14
  49    8.0341223406688e-15
  50    -0.051000473866109
  51    3.2391685068106e-14
  52    6.9822233584036e-15
  53    -0.056275440879558
  54    2.154835371294e-15
  55    4.0703917700833e-16
  56    -0.027458218870367
  57    0.00040907360817537
  58    -2.3445304774291e-16
  59    -5.6804630458589e-17
  60    -6.4644355431521e-19
  61    3.2171622596349e-19
  62    0.0044580809813243
  63    -1.9484269155809e-15
  64    -4.6930496772752e-16
  65    -5.767394181078e-18
  66    1.0138147486407e-18
  67    -0.004127249553229
  68    -3.0605879292061e-15
  69    -7.3410346303509e-16
  70    4.0062837463472e-20
  71    1.4703821957362e-17
  72    -0.0019367400075149
  73    4.6179623719638e-16
  74    1.1613987200074e-16
  75    1.5117703054357e-18
  76    -2.9972724933797e-19
  77    2.2841807773838e-20
  78    1.0975850063097e-18
 Sym= A
 Ene=   0.07815712977
 Spin= Alpha
 Occup=    0.00000
   1    -0.012163846764165
   2     0.024071786927597
   3     -0.29602278831987
   4      -3.1492627231524
   5      -2.7560081400692
   6    -0.061700996435753
   7    -0.0041290172175778
   8    -0.016481354978137
   9      0.22390126643839
  10     0.011192504568059
  11     -0.20592178551645
  12     -0.26668892200815
  13    -0.048587062709773
  14      -2.0238476229184
  15       1.4535197012066
  16    -0.014867370530088
  17     -0.94828870913773
  18    0.0032404281865223
  19     0.024371982404362
  20    0.0012613657909561
  21    -0.040027274672024
  22    0.0055744311469506
  23    -0.0083068977971227
  24    -0.073437554739676
  25    -0.0089633194599525
  26      0.12112398755086
  27    -0.021747863329225
  28     -0.48765805859972
  29      0.38476670002166
  30    -0.014642493073682
  31     -0.28524911376087
  32     0.059256616952269
  33     0.056476180006365
  34    0.0014559124801138
  35    -0.0037159826510571
  36     -0.02559198888178
  37    0.0053881361460615
  38    0.0022015583171421
  39     -0.00153160163955
  40    -0.0063172745624524
  41     0.015688461068507
  42      -0.1750906627527
  43       1.5621315697898
  44       4.9220362709036
  45     0.010372219734204
  46    0.0020991150766786
  47    -0.054450265906457
  48    -0.049853980511269
  49    -0.0035062336624644
  50      0.24815427036415
  51     0.055332538333934
  52     0.032749289894387
  53      -1.4578585956554
  54       -0.992897163184
  55     0.016406094803312
  56     -0.43916430063743
  57    -0.012011879794302
  58    0.0082994721012557
  59    -0.00015508227871011
  60     0.010517707540177
  61    -0.0022934428789882
  62     0.024480125881805
  63    -0.032388932049326
  64    -6.8760053917123e-05
  65    -0.033916605978841
  66    0.0079782982863804
  67      0.20048803755257
  68       0.1184070845282
  69    -0.015423632865927
  70      0.11406185486107
  71    -0.026001287931885
  72    -0.023991560280588
  73    -0.0031753210136779
  74    0.0020941706651821
  75    -0.0055178571195309
  76    0.0016299003732384
  77    -0.0017948504260336
  78    0.00038753760409983
 Sym= A
 Ene=   0.08352213549
 Spin= Alpha
 Occup=    0.00000
   1    0.0080738738826873
   2    -0.024495024917048
   3      0.25336053609248
   4       3.0512599683108
   5       2.8171092662421
   6    -0.046535257568444
   7     -0.08222870650461
   8     0.038155602496318
   9      0.16292872696362
  10      0.28172590836727
  11     0.020937785377531
  12      -0.3195155554948
  13     -0.60180453875185
  14       2.0990781762906
  15       0.7757505818386
  16       1.3347530021031
  17      0.94358766884547
  18    0.0068230751331868
  19     0.018990225417179
  20     0.033722776207353
  21    -0.0098712938442257
  22     0.020447694215799
  23    -0.083474146818873
  24    -0.072612060072535
  25     -0.13363181415693
  26     0.017713146105638
  27    -0.039720140349471
  28      0.58468316822346
  29      0.16003717651467
  30      0.24326125567295
  31    -0.025063298236923
  32     0.060798377092926
  33     -0.07442012363966
  34    -0.012901399623284
  35    -0.028917021651686
  36    -0.0042070394827045
  37     0.010317243195548
  38    0.0023349236769231
  39    -0.00057521681010623
  40    0.0083192782945917
  41    -0.019131237715442
  42      0.18374759907683
  43      -1.4078313585318
  44      -5.0441772270528
  45     0.014434815474102
  46     0.026690425425829
  47     0.065875531906868
  48    -0.045919816217998
  49    -0.083724173799356
  50      -0.3205697063978
  51      0.16285556197273
  52      0.32790037941929
  53       1.3318340102407
  54     -0.52169528969056
  55     -0.88546545885376
  56      0.48564704937301
  57    0.0068812995019783
  58    0.0045656382285399
  59    0.0079310577961665
  60    0.0018201740062715
  61    -0.0034023986679375
  62    0.0068143004615195
  63    -0.019949784693869
  64      -0.0354890019178
  65    -0.0055707074915036
  66    0.0097746873787703
  67     -0.16893306353302
  68     0.014714779265512
  69    0.0046465103572863
  70     0.013530815610208
  71    -0.026886844254056
  72      0.02054426251666
  73    0.0052979646655751
  74     0.012768894362108
  75    -0.0002059847269993
  76    0.00093260251258465
  77    0.00061158595504529
  78    1.0241161743779e-05
 Sym= A
 Ene=   0.08352213549
 Spin= Alpha
 Occup=    0.00000
   1    -0.012524374403063
   2     0.028364410440156
   3     -0.28366856131597
   4      -3.3773215984121
   5       -2.837816708851
   6     0.033912985487426
   7    -0.066259234730373
   8    -0.019792626031788
   9     -0.12598824245072
  10      0.23554211993008
  11     -0.18552981719177
  12      0.10296705791637
  13        -0.32979070358
  14      -2.2175298455402
  15     -0.75512245764467
  16       1.2825302173587
  17     -0.96529646094352
  18    0.0029775797553314
  19    -0.012453607864355
  20     0.026274721015734
  21     0.011430909639556
  22     0.032259543704711
  23    -0.009249836945512
  24     0.037686307115844
  25    -0.087834076883904
  26    -0.027221883142113
  27    -0.094917164530743
  28      -0.5635367334672
  29      -0.2435625804083
  30      0.34451081050867
  31     0.053534310160691
  32      0.21920387094993
  33     0.051550886737494
  34    -0.0061132126707935
  35    -0.0036783180812629
  36    0.0066863802858256
  37     0.022699197971768
  38    0.00018862646116643
  39    0.00085200088512273
  40    -0.0072936530683155
  41     0.017768847671927
  42     -0.18826874878386
  43        1.738701269411
  44       5.1218013122323
  45    -0.0043645543403295
  46     0.013835815185995
  47    -0.055298215191069
  48     0.021759310831007
  49    -0.051821791772819
  50      0.24734416089231
  51     0.012362490895421
  52     0.099876947357255
  53      -1.4907218916934
  54       0.5349792665748
  55     -0.87618004429538
  56     -0.47649519160242
  57    -0.012829021787366
  58    -0.0044410010947573
  59     0.007273636328074
  60    -0.0022096537230421
  61    -0.0082414118294341
  62     0.028175293950024
  63     0.016623945209084
  64    -0.029444274415558
  65    0.0070587358418052
  66     0.026971747757354
  67      0.18653587548018
  68    -0.078447612551694
  69     0.083055441154522
  70    -0.022707603942437
  71    -0.090255675009358
  72    -0.023539747368699
  73    0.0037862739700792
  74    0.00068618486653729
  75    0.00093371018909131
  76    0.0047613992355442
  77    -0.0011636308205514
  78    -0.00031173483992717
 Sym= A
 Ene=    0.1111408677
 Spin= Alpha
 Occup=    0.00000
   1    -0.019736719927608
   2     0.027820672428947
   3      0.39897829301968
   4      -1.5605685117826
   5     -0.17489763951878
   6    0.0070004151020015
   7    -0.002988279558499
   8    -0.029674245006308
   9    -0.032622658702753
  10     0.011512469320339
  11     0.033656944537955
  12     -0.05450575301528
  13    -0.016982878588573
  14      -2.0805022810583
  15     0.014733796558311
  16     0.024438099287906
  17       1.7306291457806
  18     0.017123814975375
  19    -0.00021214441474088
  20    0.00078908645533224
  21    -0.00065991663720568
  22    -0.00035871924647965
  23     -0.26429792455705
  24    -0.0031963045776228
  25    -0.0044807708918732
  26    0.0040351129252264
  27    0.00034026159436183
  28     -0.69844884217181
  29    -0.089066574492409
  30     0.011894888822961
  31    -0.011515953308738
  32    -0.0026801990416303
  33     -0.24064791801351
  34    -0.0090360571693457
  35    -0.00063901741474035
  36    -0.0012972657954353
  37    -0.00047292964865455
  38    -7.5666071036045e-05
  39    4.9268484751768e-05
  40    -0.0014149282786065
  41      0.01363568834118
  42    -0.048091966861171
  43        2.354188447049
  44     -0.54454098078037
  45    0.0046897574804473
  46    0.0010114694993753
  47      0.09423626562498
  48    -0.017413575774789
  49    -0.0024330339520732
  50     -0.50168588803201
  51      0.10038192336167
  52    0.0070268696134398
  53      0.53736330544506
  54    0.0082559450695886
  55    -0.020695880347399
  56     -0.98888114537298
  57     -0.01166939313307
  58    -0.00022095961269245
  59    0.00025081875501044
  60    0.00068621752279413
  61    0.00016804155979921
  62      0.11090909424897
  63    0.00017110201076756
  64    -0.0010188339992882
  65    -0.0020839159916807
  66    -0.0011682530144283
  67     -0.30571159319657
  68     -0.03570901271595
  69    0.00086804683266821
  70    0.0057847314289814
  71    0.0034298389258663
  72     0.014745655352837
  73    0.0050387030445627
  74    0.00023526600659955
  75    -0.00036869473783682
  76    -4.1331769057965e-05
  77    0.00065244713646712
  78    -5.5302583345623e-05
 Sym= A
 Ene=    0.1719824768
 Spin= Alpha
 Occup=    0.00000
   1     0.028141710348189
   2     -0.06274463381992
   3      0.64394322147308
   4       6.8524151109838
   5       1.2638873874019
   6     0.057380119659228
   7    -0.004227601678846
   8     -0.15329150643853
   9     -0.11130712479091
  10     0.013354635654585
  11       1.3002472808456
  12       1.4414239905376
  13    -0.069749488234887
  14       2.5986866611767
  15      0.45845990038241
  16    -0.030021821436621
  17      0.25820018336265
  18    -0.042309307647328
  19     0.002357765038139
  20    -0.0010075342198513
  21     -0.01248885032535
  22    -0.0010127904415304
  23      0.42808555841702
  24      0.05218981225563
  25    0.0034520122870613
  26      0.03665501755145
  27    0.0061975777079763
  28      0.29426442175634
  29      0.72068731274944
  30    -0.037866509515584
  31    -0.020288279549614
  32    0.0015070389984227
  33     0.039320588665533
  34      0.06800998876164
  35    -0.0021361413794009
  36     0.013745841904108
  37    0.0044553634849606
  38    0.0013420604332856
  39    0.0001447191499712
  40    -0.014730251631073
  41     0.037378393916355
  42     0.046572769601031
  43      -3.1813174418322
  44      -5.5978446292183
  45     0.050960909124872
  46    -0.0040844532260908
  47     0.012431512445383
  48     -0.17180435580777
  49     0.023228656274511
  50     0.092751428376495
  51     0.092460452402576
  52    -0.028428209230253
  53       2.7977315816701
  54      -2.1371601763812
  55      0.11352828739468
  56        1.269013872382
  57     0.026350445691402
  58     0.027874325902036
  59    -0.002582513181937
  60    -0.015101500177571
  61    -0.0019510996961177
  62     -0.13986174448269
  63    -0.097872911244146
  64     0.009267568213446
  65     0.042240840907366
  66     0.012135598376082
  67     -0.71567919794448
  68      0.55780999471483
  69    -0.028056211793706
  70    -0.065306413167922
  71    -0.026236366292738
  72     0.055202124472506
  73    -0.025510170525916
  74    7.3372825407757e-05
  75      0.01869324570548
  76    0.0026566858695825
  77    -0.00046282708422527
  78    -0.00059384589197724
 Sym= A
 Ene=    0.1719824768
 Spin= Alpha
 Occup=    0.00000
   1    -0.029141012162412
   2     0.065101853698609
   3     -0.64960938844067
   4      -7.0760592474051
   5      -1.3479786701237
   6     0.026229465814391
   7     0.040485052340042
   8      0.16039000389584
   9    -0.045668117247693
  10    -0.065729709633509
  11      -1.3448942617247
  12      0.74516534514927
  13       1.1650502952518
  14      -2.6406922218721
  15      0.24477108736245
  16      0.37544880881359
  17       -0.290035346955
  18     0.043594412448632
  19    0.00062997105590834
  20    0.00029420212613907
  21    -0.0074436336477829
  22      0.01488197841057
  23     -0.44603345333375
  24     0.033037943644417
  25     0.054703946349123
  26     0.025335373650496
  27    -0.050475574758942
  28     -0.28725143115706